# vtk DataFile Version 3.0
vtk output
ASCII
DATASET POLYDATA
POINTS 107 float
4.57502 6.04902 5.25441 4.65157 6.10646 5.21657 4.73608 6.16177 5.2008 
4.81945 6.22112 5.2 4.89306 6.2928 5.2 4.97094 6.36002 5.2 
5.06848 6.39037 5.2 5.16166 6.43229 5.2 5.25394 6.47735 5.2 
5.35319 6.50338 5.2 5.44606 6.54621 5.20101 5.53558 6.59009 5.22495 
5.61458 6.60746 5.28722 5.69101 6.61611 5.35573 5.77702 6.6527 5.3953 
5.87423 6.66382 5.42613 5.94818 6.664 5.49667 6.00336 6.66424 5.58335 
6.04872 6.66617 5.67554 6.09231 6.67453 5.76822 6.13663 6.69441 5.85882 
6.18539 6.70647 5.94829 6.23653 6.69033 6.03501 6.28583 6.64939 6.1214 
4.5247 5.93195 5.24734 4.56792 5.85812 5.1793 4.61973 5.80322 5.10961 
4.68661 5.76328 5.04267 4.76122 5.70885 4.99936 4.82944 5.64262 4.96092 
4.89175 5.58026 4.9082 4.95219 5.51981 4.85127 5.01431 5.45769 4.79824 
5.07617 5.39583 4.7446 5.13647 5.33547 4.68734 5.2016 5.27177 4.63948 
5.28168 5.21255 4.64552 5.35397 5.16871 4.70473 5.41601 5.11176 4.76352 
5.47903 5.04899 4.81476 5.54 4.98795 4.8704 5.59927 4.92645 4.92737 
5.64863 4.85938 4.98705 5.68822 4.78004 5.03918 5.71433 4.69422 5.08814 
5.73978 4.6197 5.15417 5.76127 4.56689 5.23815 5.76889 4.52985 5.33406 
5.77418 4.50129 5.43264 5.78247 4.47752 5.53654 5.7971 4.45399 5.66562 
5.18813 4.4053 6.0945 5.14557 4.39723 5.97634 5.10549 4.39485 5.86653 
5.07143 4.40319 5.77188 5.03135 4.4173 5.68072 4.97433 4.44479 5.60327 
4.90722 4.50124 5.5527 4.85028 4.55763 5.49216 4.8004 4.60759 5.42038 
4.75298 4.65502 5.34532 4.70035 4.70765 5.27765 4.63691 4.77109 5.23376 
4.5671 4.8409 5.24969 4.50643 4.90157 5.30302 4.45203 4.95603 5.36807 
4.40269 5.00502 5.44091 4.35926 5.04526 5.52211 4.32184 5.074 5.61132 
4.2823 5.09028 5.72122 4.97019 6.52873 6.3712 5.05178 6.54724 6.4285 
5.12275 6.53119 6.50068 5.19053 6.53383 6.57475 5.26433 6.53585 6.6447 
5.34567 6.5089 6.6989 5.43309 6.52364 6.74873 5.52383 6.50088 6.78838 
5.62433 6.49005 6.8025 5.71407 6.4535 6.83088 5.79154 6.44015 6.89572 
5.86815 6.42958 6.96259 5.95406 6.38814 6.99573 6.04417 6.343 6.98369 
6.13228 6.30877 6.94222 4.76615 4.85454 6.73246 4.80338 4.92706 6.79799 
4.8386 5.00281 6.85945 4.8787 5.08398 6.91052 4.91741 5.16328 6.96492 
4.92806 5.23701 7.03765 4.93822 5.30748 7.1137 4.97505 5.38291 7.17423 
5.01959 5.473 7.19894 5.06852 5.56447 7.2 5.13853 5.64155 7.2 
5.22262 5.70145 7.2 5.32614 5.71218 7.2 5.42902 5.72519 7.2 
5.52565 5.76254 7.2 5.62804 5.74662 7.2 5.72862 5.75928 7.2 
5.83078 5.75088 7.2 5.92429 5.70523 7.2 6.01655 5.65699 7.2 
6.09474 5.59076 7.2 6.15764 5.50888 7.2 
LINES 5 112
24 0 1 2 3 4 5 6 7 8 9 10 11 12 13 14 15 16 17 18 19 20 21 22 23 
27 24 25 26 27 28 29 30 31 32 33 34 35 36 37 38 39 40 41 42 43 44 45 46 47 48 49 50 
19 51 52 53 54 55 56 57 58 59 60 61 62 63 64 65 66 67 68 69 
15 70 71 72 73 74 75 76 77 78 79 80 81 82 83 84 
22 85 86 87 88 89 90 91 92 93 94 95 96 97 98 99 100 101 102 103 104 105 106 

POINT_DATA 107
SCALARS Curvature float
LOOKUP_TABLE default
1.58778 1.84952 1.23437 0.466275 2.3392 1.4522 0.76252 0.830954 0.122739 
1.5407 3.36092 2.87409 1.49268 2.1409 2.45367 3.50726 1.75548 0.748066 
0.879359 0.346437 1.80337 2.5716 1.34848 0 1.56686 1.96359 1.71175 
1.90647 0.850568 1.01755 0.0208716 0.187421 0.240028 0.335847 3.2739 5.59655 
2.74173 1.09836 0.256785 0.339013 0.668226 1.31879 1.55119 0.998852 2.37926 
2.52205 1.59059 0.722915 0.610543 0.305425 0 0.261757 0.704651 0.900736 
1.71933 3.2599 1.66936 1.3979 0.971296 0.278557 1.92517 4.45856 5.00969 
2.68903 1.26219 1.20185 1.42632 1.59336 1.03468 0 3.80896 1.3347 
0.911599 1.89394 1.37291 0.893295 2.28357 0.886005 2.79536 2.3809 2.12625 
4.41411 3.74535 1.57208 0 0.541501 0.821238 0.416194 1.80378 1.77937 
1.39179 3.17283 3.06687 1.83394 2.29152 3.64542 2.44909 1.32611 1.39886 
1.23219 0.370466 2.89503 1.98138 1.23342 2.17784 1.56042 0 
