# vtk DataFile Version 3.0
vtk output
ASCII
DATASET POLYDATA
POINTS 97 float
7.95652 9.80028 0.944287 7.89737 9.80261 0.959934 7.85109 9.80952 0.960619 
7.81062 9.82231 0.942769 7.77303 9.82689 0.914397 7.73867 9.81608 0.883883 
7.70415 9.80594 0.852854 7.66579 9.80155 0.826134 7.62189 9.80017 0.808911 
7.57542 9.79994 0.800978 7.5284 9.7994 0.799659 7.48134 9.79497 0.800112 
7.43663 9.7807 0.799973 7.39463 9.7593 0.799998 7.34905 9.74759 0.800004 
7.30195 9.74504 0.799998 7.25492 9.74949 0.800001 7.21042 9.7644 0.8 
7.16835 9.78564 0.8 7.12261 9.79678 0.8 7.07552 9.7997 0.8 
7.02846 9.79998 0.8 6.98137 9.8 0.8 6.93428 9.8 0.8 
6.8872 9.80011 0.8 6.84015 9.80144 0.799999 6.79339 9.8084 0.800007 
6.7501 9.82667 0.799973 6.70592 9.8427 0.800052 6.6589 9.83806 0.799935 
6.61634 9.81777 0.799715 6.57146 9.80444 0.803571 6.52571 9.80107 0.815471 
6.48418 9.80312 0.837201 6.44801 9.80968 0.866731 6.41381 9.821 0.898395 
6.37985 9.82497 0.929692 6.34554 9.81022 0.958531 6.31059 9.78463 0.979384 
6.27267 9.76039 0.992408 6.22918 9.74684 1.00374 6.18479 9.73741 1.01792 
6.14545 9.7235 1.0389 6.11177 9.7057 1.06692 6.07828 9.69381 1.09772 
6.04405 9.68733 1.12968 6.01011 9.68017 1.16178 5.97599 9.66632 1.19077 
5.94154 9.6486 1.21768 5.90718 9.63773 1.2478 5.87336 9.63356 1.28067 
5.84066 9.63223 1.31457 5.81004 9.63182 1.35023 5.7817 9.63092 1.38785 
5.75498 9.62842 1.42666 5.72975 9.62347 1.46617 5.70643 9.6155 1.50627 
5.68507 9.60499 1.54692 5.665 9.59438 1.58821 5.64546 9.58628 1.63023 
5.62618 9.58139 1.67292 5.60733 9.57874 1.7161 5.58908 9.57732 1.75956 
5.57144 9.57654 1.80322 5.55432 9.5762 1.84706 5.53759 9.57607 1.89106 
5.52123 9.57602 1.93522 5.50531 9.57603 1.97954 5.48989 9.5761 2.02404 
5.47504 9.57623 2.06871 5.46071 9.57652 2.11356 5.4468 9.5771 2.15854 
5.43323 9.57808 2.20364 5.41992 9.57963 2.24884 5.40692 9.58199 2.29408 
5.3943 9.58547 2.33933 5.38213 9.59036 2.38455 5.37048 9.59693 2.42968 
5.35952 9.60512 2.47475 5.34944 9.61467 2.51979 5.34045 9.62531 2.56484 
5.33275 9.63677 2.60995 5.3263 9.64882 2.65511 5.32053 9.66133 2.70021 
5.31478 9.67418 2.74514 5.30841 9.68727 2.78976 5.30099 9.70052 2.83402 
5.29304 9.71407 2.87815 5.28538 9.72813 2.92243 5.27884 9.74292 2.96718 
5.27407 9.75855 3.0125 5.27092 9.77466 3.05758 5.26899 9.79074 3.10129 
5.26791 9.80633 3.14258 5.26841 9.82193 3.18273 5.27264 9.83928 3.22599 
5.28282 9.8602 3.27677 
LINES 1 98
97 0 1 2 3 4 5 6 7 8 9 10 11 12 13 14 15 16 17 18 19 20 21 22 23 24 25 26 27 28 29 30 31 32 33 34 35 36 37 38 39 40 41 42 43 44 45 46 47 48 49 50 51 52 53 54 55 56 57 58 59 60 61 62 63 64 65 66 67 68 69 70 71 72 73 74 75 76 77 78 79 80 81 82 83 84 85 86 87 88 89 90 91 92 93 94 95 96 

POINT_DATA 97
SCALARS scalars float
LOOKUP_TABLE default
nan inf inf inf inf inf inf inf inf 
inf inf inf inf inf inf inf inf inf 
inf inf inf inf inf inf inf inf inf 
inf inf inf inf inf inf inf inf inf 
inf inf inf inf inf inf inf inf inf 
inf inf inf inf inf inf inf inf inf 
inf inf inf inf inf inf inf inf inf 
inf inf inf inf inf inf inf inf inf 
inf inf inf inf inf inf inf inf inf 
inf inf inf inf inf inf inf inf inf 
inf inf inf inf inf inf inf 
